s 0.179374960 _0_ RTR  --- 0 message 32 [0 0 0 0] ------- [0:255 -1:255 32 0] 
s 0.885437555 _1_ RTR  --- 1 message 32 [0 0 0 0] ------- [1:255 -1:255 32 0] 
s 1.604711584 _2_ RTR  --- 2 message 32 [0 0 0 0] ------- [2:255 -1:255 32 0] 
s 10.000000000 _0_ AGT  --- 3 tcp 40 [0 0 0 0] ------- [0:0 1:0 32 0] [0 0] 0 0
r 10.000000000 _0_ RTR  --- 3 tcp 40 [0 0 0 0] ------- [0:0 1:0 32 0] [0 0] 0 0
s 10.000000000 _2_ AGT  --- 4 tcp 40 [0 0 0 0] ------- [2:0 1:1 32 0] [0 0] 0 0
r 10.000000000 _2_ RTR  --- 4 tcp 40 [0 0 0 0] ------- [2:0 1:1 32 0] [0 0] 0 0
s 10.000000000 _0_ AGT  --- 5 tcp 40 [0 0 0 0] ------- [0:1 1:2 32 0] [0 0] 0 0
r 10.000000000 _0_ RTR  --- 5 tcp 40 [0 0 0 0] ------- [0:1 1:2 32 0] [0 0] 0 0
s 13.000000000 _0_ AGT  --- 6 tcp 40 [0 0 0 0] ------- [0:0 1:0 32 0] [0 0] 0 0
r 13.000000000 _0_ RTR  --- 6 tcp 40 [0 0 0 0] ------- [0:0 1:0 32 0] [0 0] 0 0
s 13.000000000 _2_ AGT  --- 7 tcp 40 [0 0 0 0] ------- [2:0 1:1 32 0] [0 0] 0 0
r 13.000000000 _2_ RTR  --- 7 tcp 40 [0 0 0 0] ------- [2:0 1:1 32 0] [0 0] 0 0
s 13.000000000 _0_ AGT  --- 8 tcp 40 [0 0 0 0] ------- [0:1 1:2 32 0] [0 0] 0 0
r 13.000000000 _0_ RTR  --- 8 tcp 40 [0 0 0 0] ------- [0:1 1:2 32 0] [0 0] 0 0
s 13.276839892 _2_ RTR  --- 9 message 32 [0 0 0 0] ------- [2:255 -1:255 32 0] 
s 14.490611415 _0_ RTR  --- 10 message 32 [0 0 0 0] ------- [0:255 -1:255 32 0] 
s 15.275483096 _1_ RTR  --- 11 message 32 [0 0 0 0] ------- [1:255 -1:255 32 0] 
s 19.000000000 _0_ AGT  --- 12 tcp 40 [0 0 0 0] ------- [0:0 1:0 32 0] [0 0] 0 0
r 19.000000000 _0_ RTR  --- 12 tcp 40 [0 0 0 0] ------- [0:0 1:0 32 0] [0 0] 0 0
s 19.000000000 _2_ AGT  --- 13 tcp 40 [0 0 0 0] ------- [2:0 1:1 32 0] [0 0] 0 0
r 19.000000000 _2_ RTR  --- 13 tcp 40 [0 0 0 0] ------- [2:0 1:1 32 0] [0 0] 0 0
s 19.000000000 _0_ AGT  --- 14 tcp 40 [0 0 0 0] ------- [0:1 1:2 32 0] [0 0] 0 0
r 19.000000000 _0_ RTR  --- 14 tcp 40 [0 0 0 0] ------- [0:1 1:2 32 0] [0 0] 0 0
D 19.000000000 _0_ RTR  IFQ 3 tcp 60 [0 0 0 0] ------- [0:0 1:0 32 0] [0 0] 0 0
s 24.880524800 _2_ RTR  --- 15 message 32 [0 0 0 0] ------- [2:255 -1:255 32 0] 
s 27.279651275 _0_ RTR  --- 16 message 32 [0 0 0 0] ------- [0:255 -1:255 32 0] 
s 29.753185983 _1_ RTR  --- 17 message 32 [0 0 0 0] ------- [1:255 -1:255 32 0] 
s 31.000000000 _0_ AGT  --- 18 tcp 40 [0 0 0 0] ------- [0:0 1:0 32 0] [0 0] 0 0
r 31.000000000 _0_ RTR  --- 18 tcp 40 [0 0 0 0] ------- [0:0 1:0 32 0] [0 0] 0 0
D 31.000000000 _0_ RTR  IFQ 5 tcp 60 [0 0 0 0] ------- [0:1 1:2 32 0] [0 0] 0 0
s 31.000000000 _2_ AGT  --- 19 tcp 40 [0 0 0 0] ------- [2:0 1:1 32 0] [0 0] 0 0
r 31.000000000 _2_ RTR  --- 19 tcp 40 [0 0 0 0] ------- [2:0 1:1 32 0] [0 0] 0 0
s 31.000000000 _0_ AGT  --- 20 tcp 40 [0 0 0 0] ------- [0:1 1:2 32 0] [0 0] 0 0
r 31.000000000 _0_ RTR  --- 20 tcp 40 [0 0 0 0] ------- [0:1 1:2 32 0] [0 0] 0 0
D 31.000000000 _0_ RTR  IFQ 6 tcp 60 [0 0 0 0] ------- [0:0 1:0 32 0] [0 0] 0 0
s 39.320882427 _2_ RTR  --- 21 message 32 [0 0 0 0] ------- [2:255 -1:255 32 0] 
s 40.044654988 _0_ RTR  --- 22 message 32 [0 0 0 0] ------- [0:255 -1:255 32 0] 
s 44.336212361 _1_ RTR  --- 23 message 32 [0 0 0 0] ------- [1:255 -1:255 32 0] 
s 50.794320363 _2_ RTR  --- 24 message 32 [0 0 0 0] ------- [2:255 -1:255 32 0] 
s 51.754798612 _0_ RTR  --- 25 message 32 [0 0 0 0] ------- [0:255 -1:255 32 0] 
s 55.000000000 _0_ AGT  --- 26 tcp 40 [0 0 0 0] ------- [0:0 1:0 32 0] [0 0] 0 0
r 55.000000000 _0_ RTR  --- 26 tcp 40 [0 0 0 0] ------- [0:0 1:0 32 0] [0 0] 0 0
D 55.000000000 _0_ RTR  IFQ 8 tcp 60 [0 0 0 0] ------- [0:1 1:2 32 0] [0 0] 0 0
s 55.000000000 _2_ AGT  --- 27 tcp 40 [0 0 0 0] ------- [2:0 1:1 32 0] [0 0] 0 0
r 55.000000000 _2_ RTR  --- 27 tcp 40 [0 0 0 0] ------- [2:0 1:1 32 0] [0 0] 0 0
s 55.000000000 _0_ AGT  --- 28 tcp 40 [0 0 0 0] ------- [0:1 1:2 32 0] [0 0] 0 0
r 55.000000000 _0_ RTR  --- 28 tcp 40 [0 0 0 0] ------- [0:1 1:2 32 0] [0 0] 0 0
D 55.000000000 _0_ RTR  IFQ 12 tcp 60 [0 0 0 0] ------- [0:0 1:0 32 0] [0 0] 0 0
s 57.624375345 _1_ RTR  --- 29 message 32 [0 0 0 0] ------- [1:255 -1:255 32 0] 
s 63.636012829 _2_ RTR  --- 30 message 32 [0 0 0 0] ------- [2:255 -1:255 32 0] 
s 65.951967090 _0_ RTR  --- 31 message 32 [0 0 0 0] ------- [0:255 -1:255 32 0] 
s 71.486466738 _1_ RTR  --- 32 message 32 [0 0 0 0] ------- [1:255 -1:255 32 0] 
s 76.734916773 _2_ RTR  --- 33 message 32 [0 0 0 0] ------- [2:255 -1:255 32 0] 
s 79.958813913 _0_ RTR  --- 34 message 32 [0 0 0 0] ------- [0:255 -1:255 32 0] 
s 86.115501282 _1_ RTR  --- 35 message 32 [0 0 0 0] ------- [1:255 -1:255 32 0] 
s 90.738459378 _2_ RTR  --- 36 message 32 [0 0 0 0] ------- [2:255 -1:255 32 0] 
s 94.270782997 _0_ RTR  --- 37 message 32 [0 0 0 0] ------- [0:255 -1:255 32 0] 
s 98.887950593 _1_ RTR  --- 38 message 32 [0 0 0 0] ------- [1:255 -1:255 32 0] 
s 102.309378041 _2_ RTR  --- 39 message 32 [0 0 0 0] ------- [2:255 -1:255 32 0] 
s 103.000000000 _0_ AGT  --- 40 tcp 40 [0 0 0 0] ------- [0:0 1:0 32 0] [0 0] 0 0
r 103.000000000 _0_ RTR  --- 40 tcp 40 [0 0 0 0] ------- [0:0 1:0 32 0] [0 0] 0 0
D 103.000000000 _0_ RTR  IFQ 14 tcp 60 [0 0 0 0] ------- [0:1 1:2 32 0] [0 0] 0 0
s 103.000000000 _2_ AGT  --- 41 tcp 40 [0 0 0 0] ------- [2:0 1:1 32 0] [0 0] 0 0
r 103.000000000 _2_ RTR  --- 41 tcp 40 [0 0 0 0] ------- [2:0 1:1 32 0] [0 0] 0 0
D 103.000000000 _2_ RTR  IFQ 4 tcp 60 [0 0 0 0] ------- [2:0 1:1 32 0] [0 0] 0 0
s 103.000000000 _0_ AGT  --- 42 tcp 40 [0 0 0 0] ------- [0:1 1:2 32 0] [0 0] 0 0
r 103.000000000 _0_ RTR  --- 42 tcp 40 [0 0 0 0] ------- [0:1 1:2 32 0] [0 0] 0 0
D 103.000000000 _0_ RTR  IFQ 18 tcp 60 [0 0 0 0] ------- [0:0 1:0 32 0] [0 0] 0 0
s 105.640788504 _0_ RTR  --- 43 message 32 [0 0 0 0] ------- [0:255 -1:255 32 0] 
s 111.346498792 _1_ RTR  --- 44 message 32 [0 0 0 0] ------- [1:255 -1:255 32 0] 
s 114.196703139 _2_ RTR  --- 45 message 32 [0 0 0 0] ------- [2:255 -1:255 32 0] 
s 119.850045376 _0_ RTR  --- 46 message 32 [0 0 0 0] ------- [0:255 -1:255 32 0] 
s 122.659259796 _1_ RTR  --- 47 message 32 [0 0 0 0] ------- [1:255 -1:255 32 0] 
s 125.891890358 _2_ RTR  --- 48 message 32 [0 0 0 0] ------- [2:255 -1:255 32 0] 
s 132.690451232 _0_ RTR  --- 49 message 32 [0 0 0 0] ------- [0:255 -1:255 32 0] 
s 137.269683604 _1_ RTR  --- 50 message 32 [0 0 0 0] ------- [1:255 -1:255 32 0] 
s 138.031523122 _2_ RTR  --- 51 message 32 [0 0 0 0] ------- [2:255 -1:255 32 0] 
s 144.084294489 _0_ RTR  --- 52 message 32 [0 0 0 0] ------- [0:255 -1:255 32 0] 
s 151.640397386 _1_ RTR  --- 53 message 32 [0 0 0 0] ------- [1:255 -1:255 32 0] 
s 151.668032930 _2_ RTR  --- 54 message 32 [0 0 0 0] ------- [2:255 -1:255 32 0] 
s 158.859752079 _0_ RTR  --- 55 message 32 [0 0 0 0] ------- [0:255 -1:255 32 0] 
s 163.000000000 _0_ AGT  --- 56 tcp 40 [0 0 0 0] ------- [0:0 1:0 32 0] [0 0] 0 0
r 163.000000000 _0_ RTR  --- 56 tcp 40 [0 0 0 0] ------- [0:0 1:0 32 0] [0 0] 0 0
D 163.000000000 _0_ RTR  IFQ 20 tcp 60 [0 0 0 0] ------- [0:1 1:2 32 0] [0 0] 0 0
s 163.000000000 _2_ AGT  --- 57 tcp 40 [0 0 0 0] ------- [2:0 1:1 32 0] [0 0] 0 0
r 163.000000000 _2_ RTR  --- 57 tcp 40 [0 0 0 0] ------- [2:0 1:1 32 0] [0 0] 0 0
D 163.000000000 _2_ RTR  IFQ 7 tcp 60 [0 0 0 0] ------- [2:0 1:1 32 0] [0 0] 0 0
s 163.000000000 _0_ AGT  --- 58 tcp 40 [0 0 0 0] ------- [0:1 1:2 32 0] [0 0] 0 0
r 163.000000000 _0_ RTR  --- 58 tcp 40 [0 0 0 0] ------- [0:1 1:2 32 0] [0 0] 0 0
D 163.000000000 _0_ RTR  IFQ 26 tcp 60 [0 0 0 0] ------- [0:0 1:0 32 0] [0 0] 0 0
s 164.924998044 _2_ RTR  --- 59 message 32 [0 0 0 0] ------- [2:255 -1:255 32 0] 
s 166.283794468 _1_ RTR  --- 60 message 32 [0 0 0 0] ------- [1:255 -1:255 32 0] 
s 173.414362487 _0_ RTR  --- 61 message 32 [0 0 0 0] ------- [0:255 -1:255 32 0] 
s 178.135846096 _1_ RTR  --- 62 message 32 [0 0 0 0] ------- [1:255 -1:255 32 0] 
s 178.982746563 _2_ RTR  --- 63 message 32 [0 0 0 0] ------- [2:255 -1:255 32 0] 
s 187.116704956 _0_ RTR  --- 64 message 32 [0 0 0 0] ------- [0:255 -1:255 32 0] 
s 190.111876074 _1_ RTR  --- 65 message 32 [0 0 0 0] ------- [1:255 -1:255 32 0] 
s 190.435036120 _2_ RTR  --- 66 message 32 [0 0 0 0] ------- [2:255 -1:255 32 0] 
